2
Step 360000 Lattice="24.0 0.0 0.0 0.0 24.0 0.0 0.0 0.0 24.0" Properties=species:S:1:pos:R:3
H 0.171168 18.610820 10.984887
O 10.626195 5.060265 18.526511
